4
Properties=species:S:1:pos:R:3:forces:R:3:charge:R:1 TS=T guess=T for=T H2O=T +=T H=> OH=T H2=T energy=-168.07595630960935 free_energy=-168.07595630960935 dipole="0.023037998509042347 -0.5891308543394465 -0.014120684620955807" pbc="F F F"
O       -0.03798003       0.40644227       0.01190497      -0.02404343       0.02534348       0.00044870      -0.65685227
H        0.75930710      -0.16638428       0.00351417       0.03637740      -0.00464791       0.00013787       0.29080887
H       -0.79318823      -0.18418189      -0.00761413       0.00376913      -0.01643655      -0.00037244       0.33113449
H        1.83526357      -1.07111132      -0.01100183      -0.01610310      -0.00425903      -0.00021413       0.03490891
